#------------------------------------------------------------------------------
#$Date: 2012-02-28 12:14:52 +0000 (Tue, 28 Feb 2012) $
#$Revision: 35911 $
#$URL: file:///home/coder/svn-repositories/cod/cif/1/01/01/1010130.cif $
#------------------------------------------------------------------------------
#
# This file is available in the Crystallography Open Database (COD),
# http://www.crystallography.net/
#
# All data on this site have been placed in the public domain by the
# contributors.
#
data_1010130
_chemical_name_systematic          'Zinc diiron(III) oxide'
_chemical_formula_structural       'Zn Fe2 O4'
_chemical_formula_sum              'Fe2 O4 Zn'
_publ_section_title
;
Ricerche sugli Spinelli.- II. I composti. Cu Al~2~ O~4~, Mg Al~2~ O~4~,
Mg Fe~2~ O~4~, Zn Al~2~ O~4~, Zn Cr~2~ O~4~, Zn Fe~2~ O~4~, Mn Fe~2~
O~4~
;
_space_group_IT_number           227
_symmetry_space_group_name_Hall  'F 4d 2 3 -1d'
_symmetry_space_group_name_H-M   'F d -3 m'
_[local]_cod_cif_authors_sg_H-M  'F d -3 m S'
loop_
_publ_author_name                  'Passerini, L'
_journal_name_full                 'Gazzetta Chimica Italiana'
_journal_coden_ASTM                GCITA9
_journal_volume                    60
_journal_year                      1930
_journal_page_first                389
_journal_page_last                 399
_cell_length_a                     8.350(5)
_cell_length_b                     8.350(5)
_cell_length_c                     8.350(5)
_cell_angle_alpha                  90
_cell_angle_beta                   90
_cell_angle_gamma                  90
_cell_volume                       582.2
_cell_formula_units_Z              8
_symmetry_cell_setting             cubic
loop_
_symmetry_equiv_pos_as_xyz
  'x,y,z'
  'y,z,x'
  'z,x,y'
  'x,z,y'
  'y,x,z'
  'z,y,x'
  'x,-y,-z'
  'y,-z,-x'
  'z,-x,-y'
  'x,-z,-y'
  'y,-x,-z'
  'z,-y,-x'
  '-x,y,-z'
  '-y,z,-x'
  '-z,x,-y'
  '-x,z,-y'
  '-y,x,-z'
  '-z,y,-x'
  '-x,-y,z'
  '-y,-z,x'
  '-z,-x,y'
  '-x,-z,y'
  '-y,-x,z'
  '-z,-y,x'
  '1/4-x,1/4-y,1/4-z'
  '1/4-y,1/4-z,1/4-x'
  '1/4-z,1/4-x,1/4-y'
  '1/4-x,1/4-z,1/4-y'
  '1/4-y,1/4-x,1/4-z'
  '1/4-z,1/4-y,1/4-x'
  '1/4-x,1/4+y,1/4+z'
  '1/4-y,1/4+z,1/4+x'
  '1/4-z,1/4+x,1/4+y'
  '1/4-x,1/4+z,1/4+y'
  '1/4-y,1/4+x,1/4+z'
  '1/4-z,1/4+y,1/4+x'
  '1/4+x,1/4-y,1/4+z'
  '1/4+y,1/4-z,1/4+x'
  '1/4+z,1/4-x,1/4+y'
  '1/4+x,1/4-z,1/4+y'
  '1/4+y,1/4-x,1/4+z'
  '1/4+z,1/4-y,1/4+x'
  '1/4+x,1/4+y,1/4-z'
  '1/4+y,1/4+z,1/4-x'
  '1/4+z,1/4+x,1/4-y'
  '1/4+x,1/4+z,1/4-y'
  '1/4+y,1/4+x,1/4-z'
  '1/4+z,1/4+y,1/4-x'
  'x,1/2+y,1/2+z'
  '1/2+x,y,1/2+z'
  '1/2+x,1/2+y,z'
  'y,1/2+z,1/2+x'
  '1/2+y,z,1/2+x'
  '1/2+y,1/2+z,x'
  'z,1/2+x,1/2+y'
  '1/2+z,x,1/2+y'
  '1/2+z,1/2+x,y'
  'x,1/2+z,1/2+y'
  '1/2+x,z,1/2+y'
  '1/2+x,1/2+z,y'
  'y,1/2+x,1/2+z'
  '1/2+y,x,1/2+z'
  '1/2+y,1/2+x,z'
  'z,1/2+y,1/2+x'
  '1/2+z,y,1/2+x'
  '1/2+z,1/2+y,x'
  'x,1/2-y,1/2-z'
  '1/2+x,-y,1/2-z'
  '1/2+x,1/2-y,-z'
  'y,1/2-z,1/2-x'
  '1/2+y,-z,1/2-x'
  '1/2+y,1/2-z,-x'
  'z,1/2-x,1/2-y'
  '1/2+z,-x,1/2-y'
  '1/2+z,1/2-x,-y'
  'x,1/2-z,1/2-y'
  '1/2+x,-z,1/2-y'
  '1/2+x,1/2-z,-y'
  'y,1/2-x,1/2-z'
  '1/2+y,-x,1/2-z'
  '1/2+y,1/2-x,-z'
  'z,1/2-y,1/2-x'
  '1/2+z,-y,1/2-x'
  '1/2+z,1/2-y,-x'
  '-x,1/2+y,1/2-z'
  '1/2-x,y,1/2-z'
  '1/2-x,1/2+y,-z'
  '-y,1/2+z,1/2-x'
  '1/2-y,z,1/2-x'
  '1/2-y,1/2+z,-x'
  '-z,1/2+x,1/2-y'
  '1/2-z,x,1/2-y'
  '1/2-z,1/2+x,-y'
  '-x,1/2+z,1/2-y'
  '1/2-x,z,1/2-y'
  '1/2-x,1/2+z,-y'
  '-y,1/2+x,1/2-z'
  '1/2-y,x,1/2-z'
  '1/2-y,1/2+x,-z'
  '-z,1/2+y,1/2-x'
  '1/2-z,y,1/2-x'
  '1/2-z,1/2+y,-x'
  '-x,1/2-y,1/2+z'
  '1/2-x,-y,1/2+z'
  '1/2-x,1/2-y,z'
  '-y,1/2-z,1/2+x'
  '1/2-y,-z,1/2+x'
  '1/2-y,1/2-z,x'
  '-z,1/2-x,1/2+y'
  '1/2-z,-x,1/2+y'
  '1/2-z,1/2-x,y'
  '-x,1/2-z,1/2+y'
  '1/2-x,-z,1/2+y'
  '1/2-x,1/2-z,y'
  '-y,1/2-x,1/2+z'
  '1/2-y,-x,1/2+z'
  '1/2-y,1/2-x,z'
  '-z,1/2-y,1/2+x'
  '1/2-z,-y,1/2+x'
  '1/2-z,1/2-y,x'
  '1/4-x,3/4-y,3/4-z'
  '3/4-x,1/4-y,3/4-z'
  '3/4-x,3/4-y,1/4-z'
  '1/4-y,3/4-z,3/4-x'
  '3/4-y,1/4-z,3/4-x'
  '3/4-y,3/4-z,1/4-x'
  '1/4-z,3/4-x,3/4-y'
  '3/4-z,1/4-x,3/4-y'
  '3/4-z,3/4-x,1/4-y'
  '1/4-x,3/4-z,3/4-y'
  '3/4-x,1/4-z,3/4-y'
  '3/4-x,3/4-z,1/4-y'
  '1/4-y,3/4-x,3/4-z'
  '3/4-y,1/4-x,3/4-z'
  '3/4-y,3/4-x,1/4-z'
  '1/4-z,3/4-y,3/4-x'
  '3/4-z,1/4-y,3/4-x'
  '3/4-z,3/4-y,1/4-x'
  '1/4-x,3/4+y,3/4+z'
  '3/4-x,1/4+y,3/4+z'
  '3/4-x,3/4+y,1/4+z'
  '1/4-y,3/4+z,3/4+x'
  '3/4-y,1/4+z,3/4+x'
  '3/4-y,3/4+z,1/4+x'
  '1/4-z,3/4+x,3/4+y'
  '3/4-z,1/4+x,3/4+y'
  '3/4-z,3/4+x,1/4+y'
  '1/4-x,3/4+z,3/4+y'
  '3/4-x,1/4+z,3/4+y'
  '3/4-x,3/4+z,1/4+y'
  '1/4-y,3/4+x,3/4+z'
  '3/4-y,1/4+x,3/4+z'
  '3/4-y,3/4+x,1/4+z'
  '1/4-z,3/4+y,3/4+x'
  '3/4-z,1/4+y,3/4+x'
  '3/4-z,3/4+y,1/4+x'
  '1/4+x,3/4-y,3/4+z'
  '3/4+x,1/4-y,3/4+z'
  '3/4+x,3/4-y,1/4+z'
  '1/4+y,3/4-z,3/4+x'
  '3/4+y,1/4-z,3/4+x'
  '3/4+y,3/4-z,1/4+x'
  '1/4+z,3/4-x,3/4+y'
  '3/4+z,1/4-x,3/4+y'
  '3/4+z,3/4-x,1/4+y'
  '1/4+x,3/4-z,3/4+y'
  '3/4+x,1/4-z,3/4+y'
  '3/4+x,3/4-z,1/4+y'
  '1/4+y,3/4-x,3/4+z'
  '3/4+y,1/4-x,3/4+z'
  '3/4+y,3/4-x,1/4+z'
  '1/4+z,3/4-y,3/4+x'
  '3/4+z,1/4-y,3/4+x'
  '3/4+z,3/4-y,1/4+x'
  '1/4+x,3/4+y,3/4-z'
  '3/4+x,1/4+y,3/4-z'
  '3/4+x,3/4+y,1/4-z'
  '1/4+y,3/4+z,3/4-x'
  '3/4+y,1/4+z,3/4-x'
  '3/4+y,3/4+z,1/4-x'
  '1/4+z,3/4+x,3/4-y'
  '3/4+z,1/4+x,3/4-y'
  '3/4+z,3/4+x,1/4-y'
  '1/4+x,3/4+z,3/4-y'
  '3/4+x,1/4+z,3/4-y'
  '3/4+x,3/4+z,1/4-y'
  '1/4+y,3/4+x,3/4-z'
  '3/4+y,1/4+x,3/4-z'
  '3/4+y,3/4+x,1/4-z'
  '1/4+z,3/4+y,3/4-x'
  '3/4+z,1/4+y,3/4-x'
  '3/4+z,3/4+y,1/4-x'
loop_
_atom_type_symbol
_atom_type_oxidation_number
  Zn2+   2.000
  Fe3+   3.000
  O2-   -2.000
loop_
_atom_site_label
_atom_site_type_symbol
_atom_site_symmetry_multiplicity
_atom_site_Wyckoff_symbol
_atom_site_fract_x
_atom_site_fract_y
_atom_site_fract_z
_atom_site_occupancy
_atom_site_attached_hydrogens
_atom_site_calc_flag
  Zn1   Zn2+   8 a 0. 0. 0. 1.  0 d
  Fe1   Fe3+  16 d 0.625 0.625 0.625 1.  0 d
  O1    O2-   32 e 0.375 0.375 0.375 1.  0 d
_cod_database_code 1010130
